2
Lattice="3.9810111780802626 0.0 0.0 1.9905055890401309 3.4476568129673235 0.0 1.9905055890401309 1.1492189376557744 3.2504820155375933" Properties=species:S:1:pos:R:3:momenta:R:3:masses:R:1:forces:R:3 time_fs=0.0 step=0 density=2.1751659192965453 energy=-6.757520383972924 stress="-0.005816546985101064 -4.4613856654998464e-18 1.1302736597257334e-17 -4.4613856654998464e-18 -0.005816546985101082 -3.246661380676002e-17 1.1302736597257334e-17 -3.246661380676002e-17 -0.005816546985101042" free_energy=-6.757520383972924 pbc="T T T"
Na       0.00000000       0.00000000       0.00000000       0.00000000       0.00000000       0.00000000      22.98976928       0.00000000       0.00000001       0.00000000
Cl       3.98101118       2.29843788       1.62524101       0.00000000       0.00000000       0.00000000      35.45000000      -0.00000000      -0.00000001      -0.00000000
2
Lattice="3.9810111780802626 0.0 0.0 1.9905055890401309 3.4476568129673235 0.0 1.9905055890401309 1.1492189376557744 3.2504820155375933" Properties=species:S:1:pos:R:3:momenta:R:3:masses:R:1:forces:R:3 time_fs=0.0 step=0 density=2.1751659192965453 energy=-6.757520383972924 stress="-0.005816546985101041 1.2639959343079134e-18 -2.400313821922842e-17 1.2639959343079134e-18 -0.005816546985101073 -3.0649443338796896e-18 -2.400313821922842e-17 -3.0649443338796896e-18 -0.005816546985101047" free_energy=-6.757520383972924 pbc="T T T"
Na       0.00000000       0.00000000       0.00000000       0.00000000       0.00000000       0.00000000      22.98976928       0.00000000       0.00000001       0.00000000
Cl       3.98101118       2.29843788       1.62524101      -0.00000000      -0.00000000      -0.00000000      35.45000000      -0.00000000      -0.00000001      -0.00000000
2
Lattice="3.9810111780802626 0.0 0.0 1.9905055890401309 3.4476568129673235 0.0 1.9905055890401309 1.1492189376557744 3.2504820155375933" Properties=species:S:1:pos:R:3:momenta:R:3:masses:R:1:forces:R:3 time_fs=0.0 step=0 density=2.1751659192965453 energy=-6.757520383972924 stress="-0.005816546985101053 -1.0405609336862454e-17 2.5727819486459403e-18 -1.0405609336862454e-17 -0.00581654698510107 1.6615267631424653e-17 2.5727819486459403e-18 1.6615267631424653e-17 -0.0058165469851010195" free_energy=-6.757520383972924 pbc="T T T"
Na       0.00000000       0.00000000       0.00000000       0.00000000       0.00000000       0.00000000      22.98976928       0.00000000       0.00000001       0.00000000
Cl       3.98101118       2.29843788       1.62524101      -0.00000000      -0.00000000      -0.00000000      35.45000000      -0.00000000      -0.00000001      -0.00000000
2
Lattice="3.9810111780802626 0.0 0.0 1.9905055890401309 3.4476568129673235 0.0 1.9905055890401309 1.1492189376557744 3.2504820155375933" Properties=species:S:1:pos:R:3:momenta:R:3:masses:R:1:forces:R:3 time_fs=0.0 step=0 density=2.1751659192965453 energy=-6.757520383972924 stress="-0.005816546985101031 -1.4695329582264732e-17 4.2293731749837194e-18 -1.4695329582264732e-17 -0.0058165469851010265 -1.729640558874249e-17 4.2293731749837194e-18 -1.729640558874249e-17 -0.00581654698510103" free_energy=-6.757520383972924 pbc="T T T"
Na       0.00000000       0.00000000       0.00000000       0.00000000       0.00000000       0.00000000      22.98976928       0.00000000       0.00000001       0.00000000
Cl       3.98101118       2.29843788       1.62524101      -0.00000000      -0.00000000      -0.00000000      35.45000000      -0.00000000      -0.00000001      -0.00000000
2
Lattice="3.9810111780802626 0.0 0.0 1.9905055890401309 3.4476568129673235 0.0 1.9905055890401309 1.1492189376557744 3.2504820155375933" Properties=species:S:1:pos:R:3:momenta:R:3:masses:R:1:forces:R:3 time_fs=0.0 step=0 density=2.1751659192965453 energy=-6.757520383972925 stress="-0.005816546985101071 -1.2203943313608905e-17 -1.5843114591637865e-17 -1.2203943313608905e-17 -0.005816546985101065 7.610946636720814e-18 -1.5843114591637865e-17 7.610946636720814e-18 -0.0058165469851010395" free_energy=-6.757520383972925 pbc="T T T"
Na       0.00000000       0.00000000       0.00000000       0.00000000       0.00000000       0.00000000      22.98976928       0.00000000       0.00000001       0.00000000
Cl       3.98101118       2.29843788       1.62524101      -0.00000000      -0.00000000      -0.00000000      35.45000000      -0.00000000      -0.00000001      -0.00000000
