2
Lattice="0.0 2.82 2.82 2.82 0.0 2.82 2.82 2.82 0.0" Properties=species:S:1:pos:R:3:momenta:R:3:masses:R:1:forces:R:3:mace_mp_forces:R:3 units="_JSON {\"energy\": \"eV\", \"forces\": \"ev/Ang\", \"stress\": \"ev/Ang^3\", \"time\": \"fs\", \"real_time\": \"s\", \"temperature\": \"K\", \"pressure\": \"GPa\", \"density\": \"g/cm^3\", \"momenta\": \"(eV*u)^0.5\", \"target_temperature\": \"K\"}" time=0.0 step=0 density=2.163616389926893 temperature=4.306503586043347 target_temperature=6 model_path=small arch=mace_mp mace_mp_stress="-0.004783275999053412 -0.00478327599905341 -0.004783275999053414 -2.419751470913963e-20 -1.083564932734738e-19 -7.392981353968742e-19" mace_mp_energy=-6.758781949833185 energy=-6.758781949833185 free_energy=-6.758781949833185 stress="-0.004783275999053412 -7.392981353968742e-19 -1.083564932734738e-19 -7.392981353968742e-19 -0.00478327599905341 -2.419751470913963e-20 -1.083564932734738e-19 -2.419751470913963e-20 -0.004783275999053414" pbc="T T T"
Na       0.00000000       0.00000000       0.00000000       0.09223971       0.02078728       0.14870050      22.98976928      -0.00000000      -0.00000000       0.00000000      -0.00000000      -0.00000000       0.00000000
Cl       2.82000000       0.00000000       0.00000000      -0.09223971      -0.02078728      -0.14870050      35.45000000      -0.00000000       0.00000000      -0.00000000      -0.00000000       0.00000000      -0.00000000
2
Lattice="0.0 2.82 2.82 2.82 0.0 2.82 2.82 2.82 0.0" Properties=species:S:1:pos:R:3:momenta:R:3:masses:R:1:forces:R:3:mace_mp_forces:R:3 units="_JSON {\"energy\": \"eV\", \"forces\": \"ev/Ang\", \"stress\": \"ev/Ang^3\", \"time\": \"fs\", \"real_time\": \"s\", \"temperature\": \"K\", \"pressure\": \"GPa\", \"density\": \"g/cm^3\", \"momenta\": \"(eV*u)^0.5\", \"target_temperature\": \"K\"}" time=10.0 step=10 density=2.163616389926893 temperature=50.457727309616814 target_temperature=60 model_path=small arch=mace_mp mace_mp_stress="-0.0047953416046922 -0.004783392583145712 -0.004796704431986407 -5.262593308780981e-07 -3.4786734635544028e-06 4.991725845276986e-07" mace_mp_energy=-6.7586908255056155 energy=-6.7586908255056155 free_energy=-6.7586908255056155 stress="-0.0047953416046922 4.991725845276986e-07 -3.4786734635544028e-06 4.991725845276986e-07 -0.004783392583145712 -5.262593308780981e-07 -3.4786734635544028e-06 -5.262593308780981e-07 -0.004796704431986407" pbc="T T T"
Na       0.00443496       0.00068280      -0.00466503       0.42183267       0.17364168      -0.39462897      22.98976928      -0.01173324      -0.00177486       0.01237006      -0.01173324      -0.00177486       0.01237006
Cl       2.81715771      -0.00041825       0.00300698      -0.42183267      -0.17364168       0.39462897      35.45000000       0.01173324       0.00177486      -0.01237006       0.01173324       0.00177486      -0.01237006
2
Lattice="0.0 2.82 2.82 2.82 0.0 2.82 2.82 2.82 0.0" Properties=species:S:1:pos:R:3:momenta:R:3:masses:R:1:forces:R:3:mace_mp_forces:R:3 units="_JSON {\"energy\": \"eV\", \"forces\": \"ev/Ang\", \"stress\": \"ev/Ang^3\", \"time\": \"fs\", \"real_time\": \"s\", \"temperature\": \"K\", \"pressure\": \"GPa\", \"density\": \"g/cm^3\", \"momenta\": \"(eV*u)^0.5\", \"target_temperature\": \"K\"}" time=20.0 step=20 density=2.163616389926893 temperature=98.6114352080453 target_temperature=120 model_path=small arch=mace_mp mace_mp_stress="-0.004810752212975446 -0.004819602661543991 -0.004841925563281727 -1.2672433654077596e-05 1.1057505735336556e-05 -8.735613872933804e-06" mace_mp_energy=-6.758346190856649 energy=-6.758346190856649 free_energy=-6.758346190856649 stress="-0.004810752212975446 -8.735613872933804e-06 1.1057505735336556e-05 -8.735613872933804e-06 -0.004819602661543991 -1.2672433654077596e-05 1.1057505735336556e-05 -1.2672433654077596e-05 -0.004841925563281727" pbc="T T T"
Na       0.00672058      -0.00763589       0.00973541      -0.35216904      -0.61575992       0.45591230      22.98976928      -0.01782503       0.02042971      -0.02586421      -0.01782503       0.02042971      -0.02586421
Cl       2.81565599       0.00504346      -0.00631020       0.35216904       0.61575992      -0.45591230      35.45000000       0.01782503      -0.02042971       0.02586421       0.01782503      -0.02042971       0.02586421
2
Lattice="0.0 2.82 2.82 2.82 0.0 2.82 2.82 2.82 0.0" Properties=species:S:1:pos:R:3:momenta:R:3:masses:R:1:forces:R:3:mace_mp_forces:R:3 units="_JSON {\"energy\": \"eV\", \"forces\": \"ev/Ang\", \"stress\": \"ev/Ang^3\", \"time\": \"fs\", \"real_time\": \"s\", \"temperature\": \"K\", \"pressure\": \"GPa\", \"density\": \"g/cm^3\", \"momenta\": \"(eV*u)^0.5\", \"target_temperature\": \"K\"}" time=30.0 step=30 density=2.163616389926893 temperature=189.73677249799704 target_temperature=180 model_path=small arch=mace_mp mace_mp_stress="-0.004806488031606648 -0.0047865927283124625 -0.004810551988511173 -2.712566563781327e-06 -6.882767294115318e-06 2.504968214103004e-06" mace_mp_energy=-6.758590497114405 energy=-6.758590497114405 free_energy=-6.758590497114405 stress="-0.004806488031606648 2.504968214103004e-06 -6.882767294115318e-06 2.504968214103004e-06 -0.0047865927283124625 -2.712566563781327e-06 -6.882767294115318e-06 -2.712566563781327e-06 -0.004810551988511173" pbc="T T T"
Na      -0.00613644      -0.00232657       0.00669280       0.35601003       0.44407277      -1.02183966      22.98976928       0.01628327       0.00641643      -0.01763328       0.01628327       0.00641643      -0.01763328
Cl       2.82396402       0.00165498      -0.00424426      -0.35601003      -0.44407277       1.02183966      35.45000000      -0.01628327      -0.00641643       0.01763328      -0.01628327      -0.00641643       0.01763328
2
Lattice="0.0 2.82 2.82 2.82 0.0 2.82 2.82 2.82 0.0" Properties=species:S:1:pos:R:3:momenta:R:3:masses:R:1:forces:R:3:mace_mp_forces:R:3 units="_JSON {\"energy\": \"eV\", \"forces\": \"ev/Ang\", \"stress\": \"ev/Ang^3\", \"time\": \"fs\", \"real_time\": \"s\", \"temperature\": \"K\", \"pressure\": \"GPa\", \"density\": \"g/cm^3\", \"momenta\": \"(eV*u)^0.5\", \"target_temperature\": \"K\"}" time=40.0 step=40 density=2.163616389926893 temperature=321.6748140819325 target_temperature=240 model_path=small arch=mace_mp mace_mp_stress="-0.00479675381338217 -0.004802220571809908 -0.0048846481339827495 -1.2143682486354061e-05 -1.0331888236881274e-05 4.54378005452463e-06" mace_mp_energy=-6.758305675729862 energy=-6.758305675729862 free_energy=-6.758305675729862 stress="-0.00479675381338217 4.54378005452463e-06 -1.0331888236881274e-05 4.54378005452463e-06 -0.004802220571809908 -1.2143682486354061e-05 -1.0331888236881274e-05 -1.2143682486354061e-05 -0.0048846481339827495" pbc="T T T"
Na      -0.00482132      -0.00549984       0.01279398      -0.61618001      -1.38761225      -0.11956537      22.98976928       0.01269209       0.01491838      -0.03394332       0.01269209       0.01491838      -0.03394332
Cl       2.82306013       0.00376315      -0.00824998       0.61618001       1.38761225       0.11956537      35.45000000      -0.01269209      -0.01491838       0.03394332      -0.01269209      -0.01491838       0.03394332
2
Lattice="0.0 2.82 2.82 2.82 0.0 2.82 2.82 2.82 0.0" Properties=species:S:1:pos:R:3:momenta:R:3:masses:R:1:forces:R:3:mace_mp_forces:R:3 units="_JSON {\"energy\": \"eV\", \"forces\": \"ev/Ang\", \"stress\": \"ev/Ang^3\", \"time\": \"fs\", \"real_time\": \"s\", \"temperature\": \"K\", \"pressure\": \"GPa\", \"density\": \"g/cm^3\", \"momenta\": \"(eV*u)^0.5\", \"target_temperature\": \"K\"}" time=50.00000000000001 step=50 density=2.163616389926893 temperature=257.41129290205714 target_temperature=300 model_path=small arch=mace_mp mace_mp_stress="-0.004945685838410616 -0.004823467499113481 -0.005703111724289637 -5.699696310076195e-05 0.00010756070534185585 -2.4234008781919692e-05" mace_mp_energy=-6.754766024070397 energy=-6.754766024070397 free_energy=-6.754766024070397 stress="-0.004945685838410616 -2.4234008781919692e-05 0.00010756070534185585 -2.4234008781919692e-05 -0.004823467499113481 -5.699696310076195e-05 0.00010756070534185585 -5.699696310076195e-05 -0.005703111724289637" pbc="T T T"
Na       0.01653714      -0.00871338       0.03857897       0.33921165      -0.52909576       1.20874373      22.98976928      -0.04344390       0.02299890      -0.10276629      -0.04344390       0.02299890      -0.10276629
Cl       2.80932749       0.00572414      -0.02489601      -0.33921165       0.52909576      -1.20874373      35.45000000       0.04344390      -0.02299890       0.10276629       0.04344390      -0.02299890       0.10276629
2
Lattice="0.0 2.82 2.82 2.82 0.0 2.82 2.82 2.82 0.0" Properties=species:S:1:pos:R:3:momenta:R:3:masses:R:1:forces:R:3:mace_mp_forces:R:3 units="_JSON {\"energy\": \"eV\", \"forces\": \"ev/Ang\", \"stress\": \"ev/Ang^3\", \"time\": \"fs\", \"real_time\": \"s\", \"temperature\": \"K\", \"pressure\": \"GPa\", \"density\": \"g/cm^3\", \"momenta\": \"(eV*u)^0.5\", \"target_temperature\": \"K\"}" time=60.0 step=60 density=2.163616389926893 temperature=330.44659719099286 target_temperature=300 model_path=small arch=mace_mp mace_mp_stress="-0.005132719280380911 -0.00500644839626506 -0.01084952600551007 -0.000369465993976684 0.00044252651397780714 -9.14213051293108e-05" mace_mp_energy=-6.734116465268377 energy=-6.734116465268377 free_energy=-6.734116465268377 stress="-0.005132719280380911 -9.14213051293108e-05 0.00044252651397780714 -9.14213051293108e-05 -0.00500644839626506 -0.000369465993976684 0.00044252651397780714 -0.000369465993976684 -0.01084952600551007" pbc="T T T"
Na       0.02637316      -0.02180072       0.09982126       0.36781421      -0.35572704       1.45631779      22.98976928      -0.06497124       0.05417539      -0.27472011      -0.06497124       0.05417539      -0.27472011
Cl       2.80308147       0.01439233      -0.06461372      -0.36781421       0.35572704      -1.45631779      35.45000000       0.06497124      -0.05417539       0.27472011       0.06497124      -0.05417539       0.27472011
2
Lattice="0.0 2.82 2.82 2.82 0.0 2.82 2.82 2.82 0.0" Properties=species:S:1:pos:R:3:momenta:R:3:masses:R:1:forces:R:3:mace_mp_forces:R:3 units="_JSON {\"energy\": \"eV\", \"forces\": \"ev/Ang\", \"stress\": \"ev/Ang^3\", \"time\": \"fs\", \"real_time\": \"s\", \"temperature\": \"K\", \"pressure\": \"GPa\", \"density\": \"g/cm^3\", \"momenta\": \"(eV*u)^0.5\", \"target_temperature\": \"K\"}" time=70.0 step=70 density=2.163616389926893 temperature=187.8858128512845 target_temperature=300 model_path=small arch=mace_mp mace_mp_stress="-0.005901889221695923 -0.005191200229629856 -0.01824893559809602 -0.0008397469398424971 0.0012248829267908416 -0.00023465998964610263" mace_mp_energy=-6.700580283479749 energy=-6.700580283479749 free_energy=-6.700580283479749 stress="-0.005901889221695923 -0.00023465998964610263 0.0012248829267908416 -0.00023465998964610263 -0.005191200229629856 -0.0008397469398424971 0.0012248829267908416 -0.0008397469398424971 -0.01824893559809602" pbc="T T T"
Na       0.04812167      -0.03312838       0.15011123       0.73950983      -0.22607055       0.86992586      22.98976928      -0.10884055       0.07389362      -0.43288304      -0.10884055       0.07389362      -0.43288304
Cl       2.78876470       0.02168548      -0.09721941      -0.73950983       0.22607055      -0.86992586      35.45000000       0.10884055      -0.07389362       0.43288304       0.10884055      -0.07389362       0.43288304
2
Lattice="0.0 2.82 2.82 2.82 0.0 2.82 2.82 2.82 0.0" Properties=species:S:1:pos:R:3:momenta:R:3:masses:R:1:forces:R:3:mace_mp_forces:R:3 units="_JSON {\"energy\": \"eV\", \"forces\": \"ev/Ang\", \"stress\": \"ev/Ang^3\", \"time\": \"fs\", \"real_time\": \"s\", \"temperature\": \"K\", \"pressure\": \"GPa\", \"density\": \"g/cm^3\", \"momenta\": \"(eV*u)^0.5\", \"target_temperature\": \"K\"}" time=80.0 step=80 density=2.163616389926893 temperature=100.89452395146058 target_temperature=300 model_path=small arch=mace_mp mace_mp_stress="-0.007585687246937902 -0.00554934455716944 -0.02375713523324153 -0.0013784304918608636 0.0023079953837946724 -0.0004812823428994301" mace_mp_energy=-6.669894237368161 energy=-6.669894237368161 free_energy=-6.669894237368161 stress="-0.007585687246937902 -0.0004812823428994301 0.0023079953837946724 -0.0004812823428994301 -0.00554934455716944 -0.0013784304918608636 0.0023079953837946724 -0.0013784304918608636 -0.02375713523324153" pbc="T T T"
Na       0.07529568      -0.04594185       0.17887717       0.62131496      -0.42315910       0.40299590      22.98976928      -0.15996976       0.09231308      -0.53152459      -0.15996976       0.09231308      -0.53152459
Cl       2.77112084       0.02980808      -0.11598299      -0.62131496       0.42315910      -0.40299590      35.45000000       0.15996976      -0.09231308       0.53152459       0.15996976      -0.09231308       0.53152459
2
Lattice="0.0 2.82 2.82 2.82 0.0 2.82 2.82 2.82 0.0" Properties=species:S:1:pos:R:3:momenta:R:3:masses:R:1:forces:R:3:mace_mp_forces:R:3 units="_JSON {\"energy\": \"eV\", \"forces\": \"ev/Ang\", \"stress\": \"ev/Ang^3\", \"time\": \"fs\", \"real_time\": \"s\", \"temperature\": \"K\", \"pressure\": \"GPa\", \"density\": \"g/cm^3\", \"momenta\": \"(eV*u)^0.5\", \"target_temperature\": \"K\"}" time=90.0 step=90 density=2.163616389926893 temperature=218.93861809844287 target_temperature=300 model_path=small arch=mace_mp mace_mp_stress="-0.011660440054544271 -0.006723985600845407 -0.024803776180975658 -0.002025124176803086 0.0036628696809493 -0.0010712590435265803" mace_mp_energy=-6.646575396760977 energy=-6.646575396760977 free_energy=-6.646575396760977 stress="-0.011660440054544271 -0.0010712590435265803 0.0036628696809493 -0.0010712590435265803 -0.006723985600845407 -0.002025124176803086 0.0036628696809493 -0.002025124176803086 -0.024803776180975658" pbc="T T T"
Na       0.11493939      -0.06693922       0.18607346       0.96913357      -0.76602632      -0.22944331      22.98976928      -0.24644956       0.12473315      -0.53060049      -0.24644956       0.12473315      -0.53060049
Cl       2.74544078       0.04339536      -0.12061473      -0.96913357       0.76602632       0.22944331      35.45000000       0.24644956      -0.12473315       0.53060049       0.24644956      -0.12473315       0.53060049
2
Lattice="0.0 2.82 2.82 2.82 0.0 2.82 2.82 2.82 0.0" Properties=species:S:1:pos:R:3:momenta:R:3:masses:R:1:forces:R:3:mace_mp_forces:R:3 units="_JSON {\"energy\": \"eV\", \"forces\": \"ev/Ang\", \"stress\": \"ev/Ang^3\", \"time\": \"fs\", \"real_time\": \"s\", \"temperature\": \"K\", \"pressure\": \"GPa\", \"density\": \"g/cm^3\", \"momenta\": \"(eV*u)^0.5\", \"target_temperature\": \"K\"}" time=100.00000000000001 step=100 density=2.163616389926893 temperature=160.02064354841835 target_temperature=300 model_path=small arch=mace_mp mace_mp_stress="-0.01678967535019295 -0.008866084520048318 -0.019554642734718394 -0.0022941843844583878 0.004074247855801481 -0.002022180480838237" mace_mp_energy=-6.641399881314501 energy=-6.641399881314501 free_energy=-6.641399881314501 stress="-0.01678967535019295 -0.002022180480838237 0.004074247855801481 -0.002022180480838237 -0.008866084520048318 -0.0022941843844583878 0.004074247855801481 -0.0022941843844583878 -0.019554642734718394" pbc="T T T"
Na       0.14877356      -0.09135513       0.16362925       0.68511715      -0.18989421      -0.80522426      22.98976928      -0.34888928       0.17369276      -0.40778345      -0.34888928       0.17369276      -0.40778345
Cl       2.72340004       0.05921476      -0.10589167      -0.68511715       0.18989421       0.80522426      35.45000000       0.34888928      -0.17369276       0.40778345       0.34888928      -0.17369276       0.40778345
2
Lattice="0.0 2.82 2.82 2.82 0.0 2.82 2.82 2.82 0.0" Properties=species:S:1:pos:R:3:momenta:R:3:masses:R:1:forces:R:3:mace_mp_forces:R:3 units="_JSON {\"energy\": \"eV\", \"forces\": \"ev/Ang\", \"stress\": \"ev/Ang^3\", \"time\": \"fs\", \"real_time\": \"s\", \"temperature\": \"K\", \"pressure\": \"GPa\", \"density\": \"g/cm^3\", \"momenta\": \"(eV*u)^0.5\", \"target_temperature\": \"K\"}" time=109.99999999999999 step=110 density=2.163616389926893 temperature=145.84631125589772 target_temperature=300 model_path=small arch=mace_mp mace_mp_stress="-0.021118335819873175 -0.009249784406130423 -0.012693037742545356 -0.0016692580582744043 0.00344643071721689 -0.0025621601560098664" mace_mp_energy=-6.649558932051939 energy=-6.649558932051939 free_energy=-6.649558932051939 stress="-0.021118335819873175 -0.0025621601560098664 0.00344643071721689 -0.0025621601560098664 -0.009249784406130423 -0.0016692580582744043 0.00344643071721689 -0.0016692580582744043 -0.012693037742545356" pbc="T T T"
Na       0.16980360      -0.09409551       0.12220094       0.15633641       0.11219237      -1.00727304      22.98976928      -0.44923459       0.18790816      -0.26711319      -0.44923459       0.18790816      -0.26711319
Cl       2.70960312       0.06105290      -0.07898600      -0.15633641      -0.11219237       1.00727304      35.45000000       0.44923459      -0.18790816       0.26711319       0.44923459      -0.18790816       0.26711319
